# vtk DataFile Version 3.0
MOAB 5.0.1
ASCII
DATASET UNSTRUCTURED_GRID
POINTS 35 double
0 0 0
1 0 0
1 1 0
0 1 0
0 0 1
1 0 1
1 1 1
0 1 1
0.5 0 0
0.5 0.5 0
0 0.5 0
1 0.5 0
0.5 1 0
1 0.5 1
0.5 1 1
0.5 0.5 1
0 0.5 1
0.5 0 1
0 0 0.5
0.5 0 0.5
1 0 0.5
1 0.5 0.5
1 1 0.5
0.5 1 0.5
0 1 0.5
0 0.5 0.5
0.77 0.63 0.37
0.385 0.815 0.685
0.385 0.315 0.685
0.885 0.315 0.685
0.885 0.815 0.685
0.385 0.815 0.185
0.885 0.815 0.185
0.885 0.315 0.185
0.385 0.315 0.185
CELLS 466 1806
2 0 8
2 8 10
2 10 0
2 0 18
2 18 8
2 10 25
2 25 0
2 25 18
2 8 34
2 0 34
2 18 34
2 34 25
2 34 10
2 8 1
2 1 9
2 9 8
2 1 11
2 11 9
2 8 19
2 19 1
2 19 20
2 20 1
2 20 11
2 19 33
2 1 33
2 8 33
2 11 33
2 20 33
2 33 9
2 11 2
2 2 12
2 12 11
2 11 21
2 21 2
2 21 22
2 22 2
2 22 12
2 12 32
2 2 32
2 22 32
2 21 32
2 11 32
2 10 9
2 9 3
2 3 10
2 9 12
2 12 3
2 3 23
2 23 24
2 24 3
2 12 23
2 24 10
2 23 31
2 3 31
2 12 31
2 31 24
2 10 31
2 31 9
2 17 16
2 16 4
2 4 17
2 18 4
2 4 19
2 19 18
2 17 19
2 18 16
2 17 28
2 4 28
2 16 28
2 28 19
2 28 18
2 5 13
2 13 15
2 15 5
2 15 17
2 17 5
2 20 17
2 5 20
2 5 21
2 21 20
2 13 21
2 15 29
2 5 29
2 17 29
2 29 13
2 29 21
2 29 20
2 13 6
2 6 14
2 14 13
2 22 13
2 6 22
2 23 6
2 14 23
2 23 22
2 14 30
2 6 30
2 13 30
2 30 23
2 30 22
2 15 14
2 14 7
2 7 15
2 7 16
2 16 15
2 24 14
2 7 24
2 7 25
2 25 24
2 16 25
2 7 27
2 27 15
2 27 16
2 14 27
2 24 27
2 25 27
2 28 34
2 8 28
2 34 33
2 28 33
2 8 31
2 34 31
2 31 33
2 31 11
2 24 34
2 29 33
2 11 29
2 33 32
2 29 32
2 31 32
2 30 32
2 12 30
2 30 31
2 29 30
2 14 29
2 32 13
2 30 27
2 29 27
2 27 31
2 31 14
2 17 27
2 27 28
2 34 16
2 34 27
2 28 29
2 33 17
2 27 26
2 26 29
2 26 28
2 26 30
2 26 31
2 26 32
2 26 33
2 26 34
3 0 8 10
3 8 9 10
3 8 1 9
3 10 9 3
3 1 11 9
3 11 12 9
3 11 2 12
3 9 12 3
3 5 13 15
3 13 14 15
3 13 6 14
3 15 14 7
3 5 15 17
3 15 16 17
3 15 7 16
3 17 16 4
3 0 18 8
3 18 19 8
3 18 4 19
3 8 19 1
3 1 19 20
3 19 17 20
3 19 4 17
3 20 17 5
3 1 20 11
3 20 21 11
3 20 5 21
3 11 21 2
3 2 21 22
3 21 13 22
3 21 5 13
3 22 13 6
3 3 23 24
3 23 14 24
3 23 6 14
3 24 14 7
3 2 22 12
3 22 23 12
3 22 6 23
3 12 23 3
3 3 24 10
3 24 25 10
3 24 7 25
3 10 25 0
3 0 25 18
3 25 16 18
3 25 7 16
3 18 16 4
3 8 0 34
3 0 18 34
3 8 34 18
3 25 18 34
3 25 34 0
3 10 25 34
3 10 34 0
3 34 8 10
3 19 1 33
3 1 8 33
3 19 33 8
3 11 1 33
3 1 20 33
3 11 33 20
3 19 20 33
3 8 33 9
3 1 9 33
3 11 9 33
3 12 2 32
3 2 22 32
3 12 32 22
3 21 2 32
3 2 11 32
3 21 32 11
3 21 22 32
3 32 12 11
3 23 3 31
3 3 12 31
3 23 31 12
3 3 31 24
3 23 24 31
3 10 3 31
3 10 31 24
3 3 31 9
3 31 10 9
3 31 9 12
3 17 4 28
3 4 16 28
3 17 28 16
3 4 28 18
3 19 18 28
3 19 28 4
3 16 28 18
3 19 28 17
3 15 5 29
3 5 17 29
3 15 29 17
3 5 29 13
3 15 13 29
3 5 29 20
3 21 20 29
3 21 29 5
3 21 29 13
3 17 29 20
3 14 6 30
3 6 13 30
3 14 30 13
3 6 30 22
3 23 22 30
3 23 30 6
3 23 30 14
3 13 30 22
3 7 27 16
3 15 16 27
3 15 27 7
3 7 14 27
3 15 27 14
3 7 24 27
3 14 27 24
3 25 7 27
3 25 27 16
3 24 27 25
3 28 34 18
3 28 18 8
3 28 8 34
3 28 19 8
3 8 34 33
3 34 28 33
3 8 33 28
3 19 33 28
3 8 31 10
3 9 31 8
3 31 10 34
3 31 34 8
3 9 31 33
3 31 8 33
3 31 34 33
3 11 12 31
3 11 31 9
3 31 33 11
3 24 34 31
3 24 10 34
3 34 24 25
3 29 33 20
3 29 20 11
3 29 11 33
3 29 21 11
3 11 33 32
3 33 29 32
3 11 32 29
3 21 32 29
3 31 32 12
3 11 32 31
3 32 31 33
3 30 32 22
3 30 22 12
3 30 12 32
3 30 23 12
3 32 30 31
3 12 31 30
3 23 31 30
3 29 30 13
3 29 13 14
3 29 14 30
3 15 14 29
3 30 32 29
3 13 29 32
3 13 32 30
3 13 21 32
3 32 22 13
3 14 30 27
3 30 29 27
3 14 27 29
3 29 15 27
3 27 31 30
3 14 30 31
3 14 31 27
3 14 23 31
3 31 27 24
3 31 24 14
3 17 27 29
3 17 15 27
3 27 17 16
3 27 28 16
3 27 17 28
3 28 34 27
3 16 27 34
3 16 34 28
3 34 25 27
3 16 25 34
3 34 18 16
3 17 28 29
3 28 27 29
3 29 33 28
3 17 28 33
3 17 33 29
3 17 19 33
3 33 20 17
3 27 34 31
3 24 34 27
3 27 26 28
3 26 29 28
3 27 29 26
3 29 26 30
3 26 27 30
3 30 26 32
3 26 31 32
3 30 31 26
3 28 26 34
3 26 33 34
3 28 33 26
3 29 26 33
3 26 32 33
3 29 32 26
3 31 26 27
3 34 27 26
3 34 31 26
3 26 33 31
4 15 7 27 16
4 15 5 17 29
4 17 4 16 28
4 27 26 29 28
4 17 28 27 29
4 17 27 15 29
4 27 28 17 16
4 15 27 17 16
4 15 5 29 13
4 15 7 14 27
4 14 6 13 30
4 29 26 27 30
4 14 30 29 27
4 14 29 15 27
4 29 30 14 13
4 15 29 14 13
4 23 3 12 31
4 23 6 30 22
4 30 26 31 32
4 12 2 22 32
4 30 32 12 22
4 30 12 23 22
4 12 32 30 31
4 23 12 30 31
4 19 1 8 33
4 19 4 28 18
4 28 26 33 34
4 8 0 18 34
4 28 34 8 18
4 28 8 19 18
4 8 34 28 33
4 19 8 28 33
4 21 2 11 32
4 21 5 29 20
4 29 26 32 33
4 11 1 20 33
4 29 33 11 20
4 29 11 21 20
4 11 33 29 32
4 21 11 29 32
4 23 3 31 24
4 23 6 14 30
4 14 7 24 27
4 31 26 30 27
4 14 27 31 30
4 14 31 23 30
4 31 27 14 24
4 23 31 14 24
4 21 2 32 22
4 21 5 13 29
4 13 6 22 30
4 32 26 29 30
4 13 30 32 29
4 13 32 21 29
4 32 30 13 22
4 21 32 13 22
4 25 0 34 18
4 25 7 16 27
4 16 4 18 28
4 34 26 27 28
4 16 28 34 27
4 16 34 25 27
4 34 28 16 18
4 25 34 16 18
4 19 1 33 20
4 19 4 17 28
4 17 5 20 29
4 33 26 28 29
4 17 29 33 28
4 17 33 19 28
4 33 29 17 20
4 19 33 17 20
4 10 0 34 25
4 10 3 24 31
4 24 7 25 27
4 34 26 31 27
4 24 27 34 31
4 24 34 10 31
4 34 27 24 25
4 10 34 24 25
4 26 34 31 33
4 0 34 8 10
4 1 8 33 9
4 3 31 10 9
4 9 8 31 10
4 31 8 34 10
4 9 31 8 33
4 31 34 8 33
4 32 26 31 33
4 32 2 11 12
4 11 1 33 9
4 31 3 12 9
4 11 9 31 12
4 11 31 32 12
4 31 9 11 33
4 32 31 11 33
CELL_TYPES 466
3
3
3
3
3
3
3
3
3
3
3
3
3
3
3
3
3
3
3
3
3
3
3
3
3
3
3
3
3
3
3
3
3
3
3
3
3
3
3
3
3
3
3
3
3
3
3
3
3
3
3
3
3
3
3
3
3
3
3
3
3
3
3
3
3
3
3
3
3
3
3
3
3
3
3
3
3
3
3
3
3
3
3
3
3
3
3
3
3
3
3
3
3
3
3
3
3
3
3
3
3
3
3
3
3
3
3
3
3
3
3
3
3
3
3
3
3
3
3
3
3
3
3
3
3
3
3
3
3
3
3
3
3
3
3
3
3
3
3
3
3
3
3
3
3
3
3
3
3
3
3
3
3
3
5
5
5
5
5
5
5
5
5
5
5
5
5
5
5
5
5
5
5
5
5
5
5
5
5
5
5
5
5
5
5
5
5
5
5
5
5
5
5
5
5
5
5
5
5
5
5
5
5
5
5
5
5
5
5
5
5
5
5
5
5
5
5
5
5
5
5
5
5
5
5
5
5
5
5
5
5
5
5
5
5
5
5
5
5
5
5
5
5
5
5
5
5
5
5
5
5
5
5
5
5
5
5
5
5
5
5
5
5
5
5
5
5
5
5
5
5
5
5
5
5
5
5
5
5
5
5
5
5
5
5
5
5
5
5
5
5
5
5
5
5
5
5
5
5
5
5
5
5
5
5
5
5
5
5
5
5
5
5
5
5
5
5
5
5
5
5
5
5
5
5
5
5
5
5
5
5
5
5
5
5
5
5
5
5
5
5
5
5
5
5
5
5
5
5
5
5
5
5
5
5
5
5
5
5
5
5
5
5
5
5
5
5
5
5
5
10
10
10
10
10
10
10
10
10
10
10
10
10
10
10
10
10
10
10
10
10
10
10
10
10
10
10
10
10
10
10
10
10
10
10
10
10
10
10
10
10
10
10
10
10
10
10
10
10
10
10
10
10
10
10
10
10
10
10
10
10
10
10
10
10
10
10
10
10
10
10
10
10
10
10
10
10
10
10
10
10
10
10
10
10
10
10
10
10
10
10
10
10
10
10
10
POINT_DATA 35
SCALARS GLOBAL_ID int 1
LOOKUP_TABLE default
1 
2 
3 
4 
5 
6 
7 
8 
9 
10 
11 
12 
13 
14 
15 
16 
17 
18 
19 
20 
21 
22 
23 
24 
25 
26 
27 
28 
29 
30 
31 
32 
33 
34 
35 
SCALARS Dirichlet double 1
LOOKUP_TABLE default
1 
0 
0 
1 
1 
0 
0 
1 
0 
0 
1 
0 
0 
0 
0 
0 
1 
0 
1 
0 
0 
0 
0 
0 
1 
1 
0 
0 
0 
0 
0 
0 
0 
0 
0 
SCALARS Neumann double 1
LOOKUP_TABLE default
0 
0 
0 
0 
0 
0 
0 
0 
0 
0 
0 
0 
0 
0 
0 
0 
0 
0 
0 
0 
0 
0 
0 
0 
0 
0 
0 
0 
0 
0 
0 
0 
0 
0 
0 
CELL_DATA 466
SCALARS GLOBAL_ID int 1
LOOKUP_TABLE default
0 
0 
0 
0 
0 
0 
0 
0 
0 
0 
0 
0 
0 
0 
0 
0 
0 
0 
0 
0 
0 
0 
0 
0 
0 
0 
0 
0 
0 
0 
0 
0 
0 
0 
0 
0 
0 
0 
0 
0 
0 
0 
0 
0 
0 
0 
0 
0 
0 
0 
0 
0 
0 
0 
0 
0 
0 
0 
0 
0 
0 
0 
0 
0 
0 
0 
0 
0 
0 
0 
0 
0 
0 
0 
0 
0 
0 
0 
0 
0 
0 
0 
0 
0 
0 
0 
0 
0 
0 
0 
0 
0 
0 
0 
0 
0 
0 
0 
0 
0 
0 
0 
0 
0 
0 
0 
0 
0 
0 
0 
0 
0 
0 
0 
0 
0 
0 
0 
0 
0 
0 
0 
0 
0 
0 
0 
0 
0 
0 
0 
0 
0 
0 
0 
0 
0 
0 
0 
0 
0 
0 
0 
0 
0 
0 
0 
0 
0 
0 
0 
0 
0 
0 
0 
9 
10 
11 
12 
13 
14 
15 
16 
17 
18 
19 
20 
21 
22 
23 
24 
25 
26 
27 
28 
29 
30 
31 
32 
33 
34 
35 
36 
37 
38 
39 
40 
41 
42 
43 
44 
45 
46 
47 
48 
49 
50 
51 
52 
53 
54 
55 
56 
0 
0 
0 
0 
0 
0 
0 
0 
0 
0 
0 
0 
0 
0 
0 
0 
0 
0 
0 
0 
0 
0 
0 
0 
0 
0 
0 
0 
0 
0 
0 
0 
0 
0 
0 
0 
0 
0 
0 
0 
0 
0 
0 
0 
0 
0 
0 
0 
0 
0 
0 
0 
0 
0 
0 
0 
0 
0 
0 
0 
0 
0 
0 
0 
0 
0 
0 
0 
0 
0 
0 
0 
0 
0 
0 
0 
0 
0 
0 
0 
0 
0 
0 
0 
0 
0 
0 
0 
0 
0 
0 
0 
0 
0 
0 
0 
0 
0 
0 
0 
0 
0 
0 
0 
0 
0 
0 
0 
0 
0 
0 
0 
0 
0 
0 
0 
0 
0 
0 
0 
0 
0 
0 
0 
0 
0 
0 
0 
0 
0 
0 
0 
0 
0 
0 
0 
0 
0 
0 
0 
0 
0 
0 
0 
0 
0 
0 
0 
0 
0 
0 
0 
0 
0 
0 
0 
0 
0 
0 
0 
0 
0 
0 
0 
0 
0 
0 
0 
57 
58 
59 
60 
61 
62 
63 
64 
65 
66 
67 
68 
69 
70 
71 
72 
73 
74 
75 
76 
77 
78 
79 
80 
81 
82 
83 
84 
85 
86 
87 
88 
89 
90 
91 
92 
93 
94 
95 
96 
97 
98 
99 
100 
101 
102 
103 
104 
105 
106 
107 
108 
109 
110 
111 
112 
113 
114 
115 
116 
117 
118 
119 
120 
121 
122 
123 
124 
125 
126 
127 
128 
129 
130 
131 
132 
133 
134 
135 
136 
137 
138 
139 
140 
141 
142 
143 
144 
145 
146 
147 
148 
149 
150 
151 
152 
SCALARS Dirichlet double 1
LOOKUP_TABLE default
0 
0 
0 
0 
0 
0 
0 
0 
0 
0 
0 
0 
0 
0 
0 
0 
0 
0 
0 
0 
0 
0 
0 
0 
0 
0 
0 
0 
0 
0 
0 
0 
0 
0 
0 
0 
0 
0 
0 
0 
0 
0 
0 
0 
0 
0 
0 
0 
0 
0 
0 
0 
0 
0 
0 
0 
0 
0 
0 
0 
0 
0 
0 
0 
0 
0 
0 
0 
0 
0 
0 
0 
0 
0 
0 
0 
0 
0 
0 
0 
0 
0 
0 
0 
0 
0 
0 
0 
0 
0 
0 
0 
0 
0 
0 
0 
0 
0 
0 
0 
0 
0 
0 
0 
0 
0 
0 
0 
0 
0 
0 
0 
0 
0 
0 
0 
0 
0 
0 
0 
0 
0 
0 
0 
0 
0 
0 
0 
0 
0 
0 
0 
0 
0 
0 
0 
0 
0 
0 
0 
0 
0 
0 
0 
0 
0 
0 
0 
0 
0 
0 
0 
0 
0 
0 
0 
0 
0 
0 
0 
0 
0 
0 
0 
0 
0 
0 
0 
0 
0 
0 
0 
0 
0 
0 
0 
0 
0 
0 
0 
0 
0 
0 
0 
0 
0 
0 
0 
0 
0 
0 
0 
0 
0 
1 
1 
1 
1 
1 
1 
1 
1 
0 
0 
0 
0 
0 
0 
0 
0 
0 
0 
0 
0 
0 
0 
0 
0 
0 
0 
0 
0 
0 
0 
0 
0 
0 
0 
0 
0 
0 
0 
0 
0 
0 
0 
0 
0 
0 
0 
0 
0 
0 
0 
0 
0 
0 
0 
0 
0 
0 
0 
0 
0 
0 
0 
0 
0 
0 
0 
0 
0 
0 
0 
0 
0 
0 
0 
0 
0 
0 
0 
0 
0 
0 
0 
0 
0 
0 
0 
0 
0 
0 
0 
0 
0 
0 
0 
0 
0 
0 
0 
0 
0 
0 
0 
0 
0 
0 
0 
0 
0 
0 
0 
0 
0 
0 
0 
0 
0 
0 
0 
0 
0 
0 
0 
0 
0 
0 
0 
0 
0 
0 
0 
0 
0 
0 
0 
0 
0 
0 
0 
0 
0 
0 
0 
0 
0 
0 
0 
0 
0 
0 
0 
0 
0 
0 
0 
0 
0 
0 
0 
0 
0 
0 
0 
0 
0 
0 
0 
0 
0 
0 
0 
0 
0 
0 
0 
0 
0 
0 
0 
0 
0 
0 
0 
0 
0 
0 
0 
0 
0 
0 
0 
0 
0 
0 
0 
0 
0 
0 
0 
0 
0 
0 
0 
0 
0 
0 
0 
0 
0 
0 
0 
0 
0 
0 
0 
0 
0 
0 
0 
0 
0 
0 
0 
0 
0 
0 
0 
0 
0 
0 
0 
0 
0 
0 
0 
0 
0 
0 
0 
0 
0 
0 
0 
0 
0 
0 
0 
0 
0 
0 
0 
0 
0 
0 
0 
0 
0 
0 
0 
0 
0 
0 
0 
0 
0 
0 
0 
0 
0 
0 
0 
0 
0 
SCALARS Neumann double 1
LOOKUP_TABLE default
0 
0 
0 
0 
0 
0 
0 
0 
0 
0 
0 
0 
0 
0 
0 
0 
0 
0 
0 
0 
0 
0 
0 
0 
0 
0 
0 
0 
0 
0 
0 
0 
0 
0 
0 
0 
0 
0 
0 
0 
0 
0 
0 
0 
0 
0 
0 
0 
0 
0 
0 
0 
0 
0 
0 
0 
0 
0 
0 
0 
0 
0 
0 
0 
0 
0 
0 
0 
0 
0 
0 
0 
0 
0 
0 
0 
0 
0 
0 
0 
0 
0 
0 
0 
0 
0 
0 
0 
0 
0 
0 
0 
0 
0 
0 
0 
0 
0 
0 
0 
0 
0 
0 
0 
0 
0 
0 
0 
0 
0 
0 
0 
0 
0 
0 
0 
0 
0 
0 
0 
0 
0 
0 
0 
0 
0 
0 
0 
0 
0 
0 
0 
0 
0 
0 
0 
0 
0 
0 
0 
0 
0 
0 
0 
0 
0 
0 
0 
0 
0 
0 
0 
0 
0 
0 
0 
0 
0 
0 
0 
0 
0 
0 
0 
0 
0 
0 
0 
0 
0 
0 
0 
0 
0 
0 
0 
0 
0 
0 
0 
0 
0 
0 
0 
0 
0 
0 
0 
0 
0 
0 
0 
0 
0 
0 
0 
0 
0 
0 
0 
0 
0 
0 
0 
0 
0 
0 
0 
0 
0 
0 
0 
0 
0 
0 
0 
0 
0 
0 
0 
0 
0 
0 
0 
0 
0 
0 
0 
0 
0 
0 
0 
0 
0 
0 
0 
0 
0 
0 
0 
0 
0 
0 
0 
0 
0 
0 
0 
0 
0 
0 
0 
0 
0 
0 
0 
0 
0 
0 
0 
0 
0 
0 
0 
0 
0 
0 
0 
0 
0 
0 
0 
0 
0 
0 
0 
0 
0 
0 
0 
0 
0 
0 
0 
0 
0 
0 
0 
0 
0 
0 
0 
0 
0 
0 
0 
0 
0 
0 
0 
0 
0 
0 
0 
0 
0 
0 
0 
0 
0 
0 
0 
0 
0 
0 
0 
0 
0 
0 
0 
0 
0 
0 
0 
0 
0 
0 
0 
0 
0 
0 
0 
0 
0 
0 
0 
0 
0 
0 
0 
0 
0 
0 
0 
0 
0 
0 
0 
0 
0 
0 
0 
0 
0 
0 
0 
0 
0 
0 
0 
0 
0 
0 
0 
0 
0 
0 
0 
0 
0 
0 
0 
0 
0 
0 
0 
0 
0 
0 
0 
0 
0 
0 
0 
0 
0 
0 
0 
0 
0 
0 
0 
0 
0 
0 
0 
0 
0 
0 
0 
0 
0 
0 
0 
0 
0 
0 
0 
0 
0 
0 
0 
0 
0 
0 
0 
0 
0 
0 
0 
0 
0 
0 
0 
0 
0 
0 
0 
0 
0 
0 
0 
0 
0 
0 
0 
0 
0 
0 
0 
0 
0 
0 
0 
0 
0 
0 
0 
0 
0 
0 
0 
0 
0 
0 
0 
0 
0 
0 
0 
0 
0 
0 
0 
0 
0 
TENSORS Permeability double
0 0 0 0 0 0 0 0 0 
0 0 0 0 0 0 0 0 0 
0 0 0 0 0 0 0 0 0 
0 0 0 0 0 0 0 0 0 
0 0 0 0 0 0 0 0 0 
0 0 0 0 0 0 0 0 0 
0 0 0 0 0 0 0 0 0 
0 0 0 0 0 0 0 0 0 
0 0 0 0 0 0 0 0 0 
0 0 0 0 0 0 0 0 0 
0 0 0 0 0 0 0 0 0 
0 0 0 0 0 0 0 0 0 
0 0 0 0 0 0 0 0 0 
0 0 0 0 0 0 0 0 0 
0 0 0 0 0 0 0 0 0 
0 0 0 0 0 0 0 0 0 
0 0 0 0 0 0 0 0 0 
0 0 0 0 0 0 0 0 0 
0 0 0 0 0 0 0 0 0 
0 0 0 0 0 0 0 0 0 
0 0 0 0 0 0 0 0 0 
0 0 0 0 0 0 0 0 0 
0 0 0 0 0 0 0 0 0 
0 0 0 0 0 0 0 0 0 
0 0 0 0 0 0 0 0 0 
0 0 0 0 0 0 0 0 0 
0 0 0 0 0 0 0 0 0 
0 0 0 0 0 0 0 0 0 
0 0 0 0 0 0 0 0 0 
0 0 0 0 0 0 0 0 0 
0 0 0 0 0 0 0 0 0 
0 0 0 0 0 0 0 0 0 
0 0 0 0 0 0 0 0 0 
0 0 0 0 0 0 0 0 0 
0 0 0 0 0 0 0 0 0 
0 0 0 0 0 0 0 0 0 
0 0 0 0 0 0 0 0 0 
0 0 0 0 0 0 0 0 0 
0 0 0 0 0 0 0 0 0 
0 0 0 0 0 0 0 0 0 
0 0 0 0 0 0 0 0 0 
0 0 0 0 0 0 0 0 0 
0 0 0 0 0 0 0 0 0 
0 0 0 0 0 0 0 0 0 
0 0 0 0 0 0 0 0 0 
0 0 0 0 0 0 0 0 0 
0 0 0 0 0 0 0 0 0 
0 0 0 0 0 0 0 0 0 
0 0 0 0 0 0 0 0 0 
0 0 0 0 0 0 0 0 0 
0 0 0 0 0 0 0 0 0 
0 0 0 0 0 0 0 0 0 
0 0 0 0 0 0 0 0 0 
0 0 0 0 0 0 0 0 0 
0 0 0 0 0 0 0 0 0 
0 0 0 0 0 0 0 0 0 
0 0 0 0 0 0 0 0 0 
0 0 0 0 0 0 0 0 0 
0 0 0 0 0 0 0 0 0 
0 0 0 0 0 0 0 0 0 
0 0 0 0 0 0 0 0 0 
0 0 0 0 0 0 0 0 0 
0 0 0 0 0 0 0 0 0 
0 0 0 0 0 0 0 0 0 
0 0 0 0 0 0 0 0 0 
0 0 0 0 0 0 0 0 0 
0 0 0 0 0 0 0 0 0 
0 0 0 0 0 0 0 0 0 
0 0 0 0 0 0 0 0 0 
0 0 0 0 0 0 0 0 0 
0 0 0 0 0 0 0 0 0 
0 0 0 0 0 0 0 0 0 
0 0 0 0 0 0 0 0 0 
0 0 0 0 0 0 0 0 0 
0 0 0 0 0 0 0 0 0 
0 0 0 0 0 0 0 0 0 
0 0 0 0 0 0 0 0 0 
0 0 0 0 0 0 0 0 0 
0 0 0 0 0 0 0 0 0 
0 0 0 0 0 0 0 0 0 
0 0 0 0 0 0 0 0 0 
0 0 0 0 0 0 0 0 0 
0 0 0 0 0 0 0 0 0 
0 0 0 0 0 0 0 0 0 
0 0 0 0 0 0 0 0 0 
0 0 0 0 0 0 0 0 0 
0 0 0 0 0 0 0 0 0 
0 0 0 0 0 0 0 0 0 
0 0 0 0 0 0 0 0 0 
0 0 0 0 0 0 0 0 0 
0 0 0 0 0 0 0 0 0 
0 0 0 0 0 0 0 0 0 
0 0 0 0 0 0 0 0 0 
0 0 0 0 0 0 0 0 0 
0 0 0 0 0 0 0 0 0 
0 0 0 0 0 0 0 0 0 
0 0 0 0 0 0 0 0 0 
0 0 0 0 0 0 0 0 0 
0 0 0 0 0 0 0 0 0 
0 0 0 0 0 0 0 0 0 
0 0 0 0 0 0 0 0 0 
0 0 0 0 0 0 0 0 0 
0 0 0 0 0 0 0 0 0 
0 0 0 0 0 0 0 0 0 
0 0 0 0 0 0 0 0 0 
0 0 0 0 0 0 0 0 0 
0 0 0 0 0 0 0 0 0 
0 0 0 0 0 0 0 0 0 
0 0 0 0 0 0 0 0 0 
0 0 0 0 0 0 0 0 0 
0 0 0 0 0 0 0 0 0 
0 0 0 0 0 0 0 0 0 
0 0 0 0 0 0 0 0 0 
0 0 0 0 0 0 0 0 0 
0 0 0 0 0 0 0 0 0 
0 0 0 0 0 0 0 0 0 
0 0 0 0 0 0 0 0 0 
0 0 0 0 0 0 0 0 0 
0 0 0 0 0 0 0 0 0 
0 0 0 0 0 0 0 0 0 
0 0 0 0 0 0 0 0 0 
0 0 0 0 0 0 0 0 0 
0 0 0 0 0 0 0 0 0 
0 0 0 0 0 0 0 0 0 
0 0 0 0 0 0 0 0 0 
0 0 0 0 0 0 0 0 0 
0 0 0 0 0 0 0 0 0 
0 0 0 0 0 0 0 0 0 
0 0 0 0 0 0 0 0 0 
0 0 0 0 0 0 0 0 0 
0 0 0 0 0 0 0 0 0 
0 0 0 0 0 0 0 0 0 
0 0 0 0 0 0 0 0 0 
0 0 0 0 0 0 0 0 0 
0 0 0 0 0 0 0 0 0 
0 0 0 0 0 0 0 0 0 
0 0 0 0 0 0 0 0 0 
0 0 0 0 0 0 0 0 0 
0 0 0 0 0 0 0 0 0 
0 0 0 0 0 0 0 0 0 
0 0 0 0 0 0 0 0 0 
0 0 0 0 0 0 0 0 0 
0 0 0 0 0 0 0 0 0 
0 0 0 0 0 0 0 0 0 
0 0 0 0 0 0 0 0 0 
0 0 0 0 0 0 0 0 0 
0 0 0 0 0 0 0 0 0 
0 0 0 0 0 0 0 0 0 
0 0 0 0 0 0 0 0 0 
0 0 0 0 0 0 0 0 0 
0 0 0 0 0 0 0 0 0 
0 0 0 0 0 0 0 0 0 
0 0 0 0 0 0 0 0 0 
0 0 0 0 0 0 0 0 0 
0 0 0 0 0 0 0 0 0 
0 0 0 0 0 0 0 0 0 
0 0 0 0 0 0 0 0 0 
0 0 0 0 0 0 0 0 0 
0 0 0 0 0 0 0 0 0 
0 0 0 0 0 0 0 0 0 
0 0 0 0 0 0 0 0 0 
0 0 0 0 0 0 0 0 0 
0 0 0 0 0 0 0 0 0 
0 0 0 0 0 0 0 0 0 
0 0 0 0 0 0 0 0 0 
0 0 0 0 0 0 0 0 0 
0 0 0 0 0 0 0 0 0 
0 0 0 0 0 0 0 0 0 
0 0 0 0 0 0 0 0 0 
0 0 0 0 0 0 0 0 0 
0 0 0 0 0 0 0 0 0 
0 0 0 0 0 0 0 0 0 
0 0 0 0 0 0 0 0 0 
0 0 0 0 0 0 0 0 0 
0 0 0 0 0 0 0 0 0 
0 0 0 0 0 0 0 0 0 
0 0 0 0 0 0 0 0 0 
0 0 0 0 0 0 0 0 0 
0 0 0 0 0 0 0 0 0 
0 0 0 0 0 0 0 0 0 
0 0 0 0 0 0 0 0 0 
0 0 0 0 0 0 0 0 0 
0 0 0 0 0 0 0 0 0 
0 0 0 0 0 0 0 0 0 
0 0 0 0 0 0 0 0 0 
0 0 0 0 0 0 0 0 0 
0 0 0 0 0 0 0 0 0 
0 0 0 0 0 0 0 0 0 
0 0 0 0 0 0 0 0 0 
0 0 0 0 0 0 0 0 0 
0 0 0 0 0 0 0 0 0 
0 0 0 0 0 0 0 0 0 
0 0 0 0 0 0 0 0 0 
0 0 0 0 0 0 0 0 0 
0 0 0 0 0 0 0 0 0 
0 0 0 0 0 0 0 0 0 
0 0 0 0 0 0 0 0 0 
0 0 0 0 0 0 0 0 0 
0 0 0 0 0 0 0 0 0 
0 0 0 0 0 0 0 0 0 
0 0 0 0 0 0 0 0 0 
0 0 0 0 0 0 0 0 0 
0 0 0 0 0 0 0 0 0 
0 0 0 0 0 0 0 0 0 
0 0 0 0 0 0 0 0 0 
0 0 0 0 0 0 0 0 0 
0 0 0 0 0 0 0 0 0 
0 0 0 0 0 0 0 0 0 
0 0 0 0 0 0 0 0 0 
0 0 0 0 0 0 0 0 0 
0 0 0 0 0 0 0 0 0 
0 0 0 0 0 0 0 0 0 
0 0 0 0 0 0 0 0 0 
0 0 0 0 0 0 0 0 0 
0 0 0 0 0 0 0 0 0 
0 0 0 0 0 0 0 0 0 
0 0 0 0 0 0 0 0 0 
0 0 0 0 0 0 0 0 0 
0 0 0 0 0 0 0 0 0 
0 0 0 0 0 0 0 0 0 
0 0 0 0 0 0 0 0 0 
0 0 0 0 0 0 0 0 0 
0 0 0 0 0 0 0 0 0 
0 0 0 0 0 0 0 0 0 
0 0 0 0 0 0 0 0 0 
0 0 0 0 0 0 0 0 0 
0 0 0 0 0 0 0 0 0 
0 0 0 0 0 0 0 0 0 
0 0 0 0 0 0 0 0 0 
0 0 0 0 0 0 0 0 0 
0 0 0 0 0 0 0 0 0 
0 0 0 0 0 0 0 0 0 
0 0 0 0 0 0 0 0 0 
0 0 0 0 0 0 0 0 0 
0 0 0 0 0 0 0 0 0 
0 0 0 0 0 0 0 0 0 
0 0 0 0 0 0 0 0 0 
0 0 0 0 0 0 0 0 0 
0 0 0 0 0 0 0 0 0 
0 0 0 0 0 0 0 0 0 
0 0 0 0 0 0 0 0 0 
0 0 0 0 0 0 0 0 0 
0 0 0 0 0 0 0 0 0 
0 0 0 0 0 0 0 0 0 
0 0 0 0 0 0 0 0 0 
0 0 0 0 0 0 0 0 0 
0 0 0 0 0 0 0 0 0 
0 0 0 0 0 0 0 0 0 
0 0 0 0 0 0 0 0 0 
0 0 0 0 0 0 0 0 0 
0 0 0 0 0 0 0 0 0 
0 0 0 0 0 0 0 0 0 
0 0 0 0 0 0 0 0 0 
0 0 0 0 0 0 0 0 0 
0 0 0 0 0 0 0 0 0 
0 0 0 0 0 0 0 0 0 
0 0 0 0 0 0 0 0 0 
0 0 0 0 0 0 0 0 0 
0 0 0 0 0 0 0 0 0 
0 0 0 0 0 0 0 0 0 
0 0 0 0 0 0 0 0 0 
0 0 0 0 0 0 0 0 0 
0 0 0 0 0 0 0 0 0 
0 0 0 0 0 0 0 0 0 
0 0 0 0 0 0 0 0 0 
0 0 0 0 0 0 0 0 0 
0 0 0 0 0 0 0 0 0 
0 0 0 0 0 0 0 0 0 
0 0 0 0 0 0 0 0 0 
0 0 0 0 0 0 0 0 0 
0 0 0 0 0 0 0 0 0 
0 0 0 0 0 0 0 0 0 
0 0 0 0 0 0 0 0 0 
0 0 0 0 0 0 0 0 0 
0 0 0 0 0 0 0 0 0 
0 0 0 0 0 0 0 0 0 
0 0 0 0 0 0 0 0 0 
0 0 0 0 0 0 0 0 0 
0 0 0 0 0 0 0 0 0 
0 0 0 0 0 0 0 0 0 
0 0 0 0 0 0 0 0 0 
0 0 0 0 0 0 0 0 0 
0 0 0 0 0 0 0 0 0 
0 0 0 0 0 0 0 0 0 
0 0 0 0 0 0 0 0 0 
0 0 0 0 0 0 0 0 0 
0 0 0 0 0 0 0 0 0 
0 0 0 0 0 0 0 0 0 
0 0 0 0 0 0 0 0 0 
0 0 0 0 0 0 0 0 0 
0 0 0 0 0 0 0 0 0 
0 0 0 0 0 0 0 0 0 
0 0 0 0 0 0 0 0 0 
0 0 0 0 0 0 0 0 0 
0 0 0 0 0 0 0 0 0 
0 0 0 0 0 0 0 0 0 
0 0 0 0 0 0 0 0 0 
0 0 0 0 0 0 0 0 0 
0 0 0 0 0 0 0 0 0 
0 0 0 0 0 0 0 0 0 
0 0 0 0 0 0 0 0 0 
0 0 0 0 0 0 0 0 0 
0 0 0 0 0 0 0 0 0 
0 0 0 0 0 0 0 0 0 
0 0 0 0 0 0 0 0 0 
0 0 0 0 0 0 0 0 0 
0 0 0 0 0 0 0 0 0 
0 0 0 0 0 0 0 0 0 
0 0 0 0 0 0 0 0 0 
0 0 0 0 0 0 0 0 0 
0 0 0 0 0 0 0 0 0 
0 0 0 0 0 0 0 0 0 
0 0 0 0 0 0 0 0 0 
0 0 0 0 0 0 0 0 0 
0 0 0 0 0 0 0 0 0 
0 0 0 0 0 0 0 0 0 
0 0 0 0 0 0 0 0 0 
0 0 0 0 0 0 0 0 0 
0 0 0 0 0 0 0 0 0 
0 0 0 0 0 0 0 0 0 
0 0 0 0 0 0 0 0 0 
0 0 0 0 0 0 0 0 0 
0 0 0 0 0 0 0 0 0 
0 0 0 0 0 0 0 0 0 
0 0 0 0 0 0 0 0 0 
0 0 0 0 0 0 0 0 0 
0 0 0 0 0 0 0 0 0 
0 0 0 0 0 0 0 0 0 
0 0 0 0 0 0 0 0 0 
0 0 0 0 0 0 0 0 0 
0 0 0 0 0 0 0 0 0 
0 0 0 0 0 0 0 0 0 
0 0 0 0 0 0 0 0 0 
0 0 0 0 0 0 0 0 0 
0 0 0 0 0 0 0 0 0 
0 0 0 0 0 0 0 0 0 
0 0 0 0 0 0 0 0 0 
0 0 0 0 0 0 0 0 0 
0 0 0 0 0 0 0 0 0 
0 0 0 0 0 0 0 0 0 
0 0 0 0 0 0 0 0 0 
0 0 0 0 0 0 0 0 0 
0 0 0 0 0 0 0 0 0 
0 0 0 0 0 0 0 0 0 
0 0 0 0 0 0 0 0 0 
0 0 0 0 0 0 0 0 0 
0 0 0 0 0 0 0 0 0 
0 0 0 0 0 0 0 0 0 
0 0 0 0 0 0 0 0 0 
0 0 0 0 0 0 0 0 0 
0 0 0 0 0 0 0 0 0 
0 0 0 0 0 0 0 0 0 
0 0 0 0 0 0 0 0 0 
0 0 0 0 0 0 0 0 0 
0 0 0 0 0 0 0 0 0 
0 0 0 0 0 0 0 0 0 
0 0 0 0 0 0 0 0 0 
0 0 0 0 0 0 0 0 0 
0 0 0 0 0 0 0 0 0 
0 0 0 0 0 0 0 0 0 
0 0 0 0 0 0 0 0 0 
0 0 0 0 0 0 0 0 0 
0 0 0 0 0 0 0 0 0 
0 0 0 0 0 0 0 0 0 
0 0 0 0 0 0 0 0 0 
0 0 0 0 0 0 0 0 0 
0 0 0 0 0 0 0 0 0 
0 0 0 0 0 0 0 0 0 
0 0 0 0 0 0 0 0 0 
0 0 0 0 0 0 0 0 0 
2 0 0 0 2 0 0 0 2 
2 0 0 0 2 0 0 0 2 
2 0 0 0 2 0 0 0 2 
2 0 0 0 2 0 0 0 2 
2 0 0 0 2 0 0 0 2 
2 0 0 0 2 0 0 0 2 
2 0 0 0 2 0 0 0 2 
2 0 0 0 2 0 0 0 2 
2 0 0 0 2 0 0 0 2 
2 0 0 0 2 0 0 0 2 
2 0 0 0 2 0 0 0 2 
2 0 0 0 2 0 0 0 2 
2 0 0 0 2 0 0 0 2 
2 0 0 0 2 0 0 0 2 
2 0 0 0 2 0 0 0 2 
2 0 0 0 2 0 0 0 2 
2 0 0 0 2 0 0 0 2 
2 0 0 0 2 0 0 0 2 
2 0 0 0 2 0 0 0 2 
2 0 0 0 2 0 0 0 2 
2 0 0 0 2 0 0 0 2 
2 0 0 0 2 0 0 0 2 
2 0 0 0 2 0 0 0 2 
2 0 0 0 2 0 0 0 2 
2 0 0 0 2 0 0 0 2 
2 0 0 0 2 0 0 0 2 
2 0 0 0 2 0 0 0 2 
2 0 0 0 2 0 0 0 2 
2 0 0 0 2 0 0 0 2 
2 0 0 0 2 0 0 0 2 
2 0 0 0 2 0 0 0 2 
2 0 0 0 2 0 0 0 2 
2 0 0 0 2 0 0 0 2 
2 0 0 0 2 0 0 0 2 
2 0 0 0 2 0 0 0 2 
2 0 0 0 2 0 0 0 2 
2 0 0 0 2 0 0 0 2 
2 0 0 0 2 0 0 0 2 
2 0 0 0 2 0 0 0 2 
2 0 0 0 2 0 0 0 2 
2 0 0 0 2 0 0 0 2 
2 0 0 0 2 0 0 0 2 
2 0 0 0 2 0 0 0 2 
2 0 0 0 2 0 0 0 2 
2 0 0 0 2 0 0 0 2 
2 0 0 0 2 0 0 0 2 
2 0 0 0 2 0 0 0 2 
2 0 0 0 2 0 0 0 2 
2 0 0 0 2 0 0 0 2 
2 0 0 0 2 0 0 0 2 
2 0 0 0 2 0 0 0 2 
2 0 0 0 2 0 0 0 2 
2 0 0 0 2 0 0 0 2 
2 0 0 0 2 0 0 0 2 
2 0 0 0 2 0 0 0 2 
2 0 0 0 2 0 0 0 2 
2 0 0 0 2 0 0 0 2 
2 0 0 0 2 0 0 0 2 
2 0 0 0 2 0 0 0 2 
2 0 0 0 2 0 0 0 2 
2 0 0 0 2 0 0 0 2 
2 0 0 0 2 0 0 0 2 
2 0 0 0 2 0 0 0 2 
2 0 0 0 2 0 0 0 2 
2 0 0 0 2 0 0 0 2 
2 0 0 0 2 0 0 0 2 
2 0 0 0 2 0 0 0 2 
2 0 0 0 2 0 0 0 2 
2 0 0 0 2 0 0 0 2 
2 0 0 0 2 0 0 0 2 
2 0 0 0 2 0 0 0 2 
2 0 0 0 2 0 0 0 2 
2 0 0 0 2 0 0 0 2 
2 0 0 0 2 0 0 0 2 
2 0 0 0 2 0 0 0 2 
2 0 0 0 2 0 0 0 2 
2 0 0 0 2 0 0 0 2 
2 0 0 0 2 0 0 0 2 
2 0 0 0 2 0 0 0 2 
2 0 0 0 2 0 0 0 2 
2 0 0 0 2 0 0 0 2 
2 0 0 0 2 0 0 0 2 
2 0 0 0 2 0 0 0 2 
2 0 0 0 2 0 0 0 2 
2 0 0 0 2 0 0 0 2 
2 0 0 0 2 0 0 0 2 
2 0 0 0 2 0 0 0 2 
2 0 0 0 2 0 0 0 2 
2 0 0 0 2 0 0 0 2 
2 0 0 0 2 0 0 0 2 
2 0 0 0 2 0 0 0 2 
2 0 0 0 2 0 0 0 2 
2 0 0 0 2 0 0 0 2 
2 0 0 0 2 0 0 0 2 
2 0 0 0 2 0 0 0 2 
2 0 0 0 2 0 0 0 2 
SCALARS Pressure double 1
LOOKUP_TABLE default
0 
0 
0 
0 
0 
0 
0 
0 
0 
0 
0 
0 
0 
0 
0 
0 
0 
0 
0 
0 
0 
0 
0 
0 
0 
0 
0 
0 
0 
0 
0 
0 
0 
0 
0 
0 
0 
0 
0 
0 
0 
0 
0 
0 
0 
0 
0 
0 
0 
0 
0 
0 
0 
0 
0 
0 
0 
0 
0 
0 
0 
0 
0 
0 
0 
0 
0 
0 
0 
0 
0 
0 
0 
0 
0 
0 
0 
0 
0 
0 
0 
0 
0 
0 
0 
0 
0 
0 
0 
0 
0 
0 
0 
0 
0 
0 
0 
0 
0 
0 
0 
0 
0 
0 
0 
0 
0 
0 
0 
0 
0 
0 
0 
0 
0 
0 
0 
0 
0 
0 
0 
0 
0 
0 
0 
0 
0 
0 
0 
0 
0 
0 
0 
0 
0 
0 
0 
0 
0 
0 
0 
0 
0 
0 
0 
0 
0 
0 
0 
0 
0 
0 
0 
0 
0 
0 
0 
0 
0 
0 
0 
0 
0 
0 
0 
0 
0 
0 
0 
0 
0 
0 
0 
0 
0 
0 
0 
0 
0 
0 
0 
0 
0 
0 
0 
0 
0 
0 
0 
0 
0 
0 
0 
0 
0 
0 
0 
0 
0 
0 
0 
0 
0 
0 
0 
0 
0 
0 
0 
0 
0 
0 
0 
0 
0 
0 
0 
0 
0 
0 
0 
0 
0 
0 
0 
0 
0 
0 
0 
0 
0 
0 
0 
0 
0 
0 
0 
0 
0 
0 
0 
0 
0 
0 
0 
0 
0 
0 
0 
0 
0 
0 
0 
0 
0 
0 
0 
0 
0 
0 
0 
0 
0 
0 
0 
0 
0 
0 
0 
0 
0 
0 
0 
0 
0 
0 
0 
0 
0 
0 
0 
0 
0 
0 
0 
0 
0 
0 
0 
0 
0 
0 
0 
0 
0 
0 
0 
0 
0 
0 
0 
0 
0 
0 
0 
0 
0 
0 
0 
0 
0 
0 
0 
0 
0 
0 
0 
0 
0 
0 
0 
0 
0 
0 
0 
0 
0 
0 
0 
0 
0 
0 
0 
0 
0 
0 
0 
0 
0 
0 
0 
0 
0 
0 
0 
0 
0 
0 
0 
0 
0 
0 
0 
0 
0 
0 
0 
0 
0 
0 
0 
0 
0 
0 
0 
0 
0 
0 
0 
0 
0.77875 
0.27875 
0.77875 
0.39375 
0.46125 
0.4325 
0.6825 
0.65375 
0.15375 
0.65375 
0.15375 
0.26875 
0.33625 
0.4325 
0.1825 
0.27875 
0.65375 
0.15375 
0.26875 
0.15375 
0.1825 
0.27875 
0.33625 
0.4325 
0.27875 
0.77875 
0.39375 
0.77875 
0.6825 
0.65375 
0.46125 
0.4325 
0.02875 
0.02875 
0.14375 
0.02875 
0.0575 
0.02875 
0.08625 
0.0575 
0.77875 
0.27875 
0.77875 
0.39375 
0.46125 
0.4325 
0.6825 
0.65375 
0.02875 
0.02875 
0.02875 
0.14375 
0.08625 
0.0575 
0.0575 
0.02875 
0.90375 
0.90375 
0.90375 
0.51875 
0.71125 
0.8075 
0.8075 
0.90375 
0.15375 
0.65375 
0.15375 
0.26875 
0.33625 
0.4325 
0.1825 
0.27875 
0.90375 
0.90375 
0.90375 
0.51875 
0.71125 
0.8075 
0.8075 
0.90375 
0.39375 
0.77875 
0.27875 
0.77875 
0.65375 
0.6825 
0.4325 
0.46125 
0.26875 
0.15375 
0.15375 
0.65375 
0.40375 
0.3075 
0.3075 
0.21125 
